 Gaussian 09, Revision D.01,
 Gaussian 09:  EM64L-G09RevD.01 24-Apr-2013

 ----------------------------------------------------------------------
 #m062x/6-311g(d,p) opt=maxcycle=640 freq nosymm scf=(maxcycle=999) gfi
 nput iop(6/7=3) scrf=(cpcm,solvent=water) Temperature=293
 ----------------------------------------------------------------------

 -----------------
 benezene c1ccccc1
 -----------------
 Symbolic Z-matrix:
 Charge =  0 Multiplicity = 1

 SCF Done:  E(RM062X) =  -232.188116606     A.U. after    9 cycles
 SCF Done:  E(RM062X) =  -232.199585498     A.U. after    8 cycles
 SCF Done:  E(RM062X) =  -232.199620810     A.U. after    7 cycles
 Optimization completed.
    -- Stationary point found.
 Normal termination of Gaussian 09 at Fri Apr  3 13:58:34 2020.

 ----------------------------------------------------------------------
 #N Geom=AllCheck Guess=TCheck SCRF=Check Test GenChk RM062X/6-311G(d,p
 ) Freq
 ----------------------------------------------------------------------

 Structure from the checkpoint file:  "/scratch/slurm-3848437/Gau-20471.chk"
 -----------------
 benezene c1ccccc1
 -----------------
 Charge =  0 Multiplicity = 1

                          Input orientation:
 ---------------------------------------------------------------------
 Center     Atomic      Atomic             Coordinates (Angstroms)
 Number     Number       Type             X           Y           Z
 ---------------------------------------------------------------------
      1          6           0       -0.750153    1.173991    0.017275
      2          6           0        0.640083    1.247278    0.032744
      3          6           0        1.398782    0.079643    0.032169
      4          6           0        0.767313   -1.160999    0.016215
      5          6           0       -0.622923   -1.234286    0.000745
      6          6           0       -1.381622   -0.066651    0.001321
      7          1           0       -1.340765    2.082736    0.017743
      8          1           0        1.132017    2.212826    0.045549
      9          1           0        2.480944    0.136473    0.044227
     10          1           0        1.357925   -2.069745    0.015747
     11          1           0       -1.114857   -2.199835   -0.012061
     12          1           0       -2.463784   -0.123481   -0.010737
 ---------------------------------------------------------------------

 SCF Done:  E(RM062X) =  -232.199620810     A.U. after    1 cycles

 Alpha  occ. eigenvalues --  -10.54535 -10.54501 -10.54499 -10.54421 -10.54419
 Alpha  occ. eigenvalues --  -10.54381  -0.96354  -0.84588  -0.84582  -0.68808
 Alpha  occ. eigenvalues --   -0.68803  -0.60297  -0.53414  -0.51595  -0.49029
 Alpha  occ. eigenvalues --   -0.49023  -0.44439  -0.40421  -0.40416  -0.31256
 Alpha  occ. eigenvalues --   -0.31248
 Alpha virt. eigenvalues --    0.02259   0.02266   0.08131   0.11596   0.11598
 Alpha virt. eigenvalues --    0.15022   0.15024   0.17627   0.19825   0.30648
 Alpha virt. eigenvalues --    0.30654   0.32802   0.32811   0.34708   0.38066

 Mulliken charges:
               1
     1  C   -0.146344
     2  C   -0.146551
     3  C   -0.146672
     4  C   -0.146344
     5  C   -0.146551
     6  C   -0.146672
     7  H    0.146515
     8  H    0.146585
     9  H    0.146468
    10  H    0.146515
    11  H    0.146585
    12  H    0.146468
 Sum of Mulliken charges =   0.00000

 Dipole moment (field-independent basis, Debye):
    X=              0.0000    Y=              0.0000    Z=              0.0000  Tot=              0.0000
 Quadrupole moment (field-independent basis, Debye-Ang):
   XX=            -30.8003   YY=            -30.7988   ZZ=            -40.1635
   XY=             -0.0031   XZ=              0.1013   YZ=              0.0712

  Exact polarizability:  97.936  -0.095  97.587   0.670   0.458  35.253
 Approx polarizability:  96.613  -0.006  96.623   0.625   0.433  38.271

                      1                      2                      3
                      A                      A                      A
 Frequencies --    409.5048               414.4854               617.2438
 Red. masses --      2.8450                 2.8906                 6.0400
 Frc consts  --      0.2811                 0.2926                 1.3558
 IR Inten    --      0.0290                 0.0336                 0.0000

                      4                      5                      6
                      A                      A                      A
 Frequencies --    617.9435               695.5746               724.5554
 Red. masses --      6.0583                 1.0858                 3.5862
 Frc consts  --      1.3630                 0.3095                 1.1092
 IR Inten    --      0.0000               176.8856                 0.0000

                      7                      8                      9
                      A                      A                      A
 Frequencies --    878.3263               890.9694              1008.9925
 Red. masses --      1.2481                 1.2482                 1.3805
 Frc consts  --      0.5673                 0.5838                 0.8280
 IR Inten    --      0.0000                 0.0000                 0.0798

                     10                     11                     12
                      A                      A                      A
 Frequencies --   1013.9382              1019.7612              1030.5609
 Red. masses --      6.4926                 1.3699                 5.9812
 Frc consts  --      3.9327                 0.8393                 3.7427
 IR Inten    --      0.0010                 0.0827                 0.0000

                     13                     14                     15
                      A                      A                      A
 Frequencies --   1041.9709              1070.3425              1071.8025
 Red. masses --      1.2542                 1.6222                 1.6329
 Frc consts  --      0.8023                 1.0950                 1.1052
 IR Inten    --      0.0000                13.3986                13.1482

                     16                     17                     18
                      A                      A                      A
 Frequencies --   1162.0302              1191.8509              1195.2576
 Red. masses --      1.1073                 1.1164                 1.1154
 Frc consts  --      0.8810                 0.9344                 0.9389
 IR Inten    --      0.0274                 0.0000                 0.0000

                     19                     20                     21
                      A                      A                      A
 Frequencies --   1332.6815              1376.5580              1520.4549
 Red. masses --      5.7987                 1.2477                 2.1295
 Frc consts  --      6.0679                 1.3930                 2.9005
 IR Inten    --      0.0045                 0.0000                15.9485

                     22                     23                     24
                      A                      A                      A
 Frequencies --   1522.0683              1669.0798              1673.4074
 Red. masses --      2.1170                 5.8353                 5.8410
 Frc consts  --      2.8896                 9.5778                 9.6370
 IR Inten    --     15.7939                 0.0000                 0.0000

                     25                     26                     27
                      A                      A                      A
 Frequencies --   3176.6897              3180.1904              3195.0280
 Red. masses --      1.0870                 1.0897                 1.0901
 Frc consts  --      6.4632                 6.4931                 6.5564
 IR Inten    --      5.0737                 0.0000                 0.0000

                     28                     29                     30
                      A                      A                      A
 Frequencies --   3198.3416              3213.3475              3217.5505
 Red. masses --      1.0953                 1.0955                 1.0987
 Frc consts  --      6.6016                 6.6649                 6.7014
 IR Inten    --     28.0906                30.1218                 0.0000

 - Thermochemistry -
 -------------------
 Temperature   293.000 Kelvin.  Pressure   1.00000 Atm.
 Atom     1 has atomic number  6 and mass  12.00000

 Molecular mass:    78.04695 amu.
 Principal axes and moments of inertia in atomic units:
                           1         2         3
     Eigenvalues --   315.36488 315.45125 630.81613
           X           -0.45232   0.89179  -0.01072
           Y            0.89186   0.45226  -0.00745
           Z            0.00179   0.01293   0.99991
 This molecule is an asymmetric top.
 Rotational symmetry number  1.
 Rotational temperatures (Kelvin)      0.27465     0.27457     0.13730
 Rotational constants (GHZ):           5.72271     5.72114     2.86096
 Zero-point vibrational energy     265155.3 (Joules/Mol)
                                   63.37364 (Kcal/Mol)
 Warning -- explicit consideration of   2 degrees of freedom as
           vibrations may cause significant error
 Vibrational temperatures:    589.19   596.35   888.08   889.08  1000.78
          (Kelvin)           1042.47  1263.71  1281.90  1451.71  1458.83
                             1467.21  1482.75  1499.16  1539.98  1542.08
                             1671.90  1714.81  1719.71  1917.43  1980.56
                             2187.59  2189.91  2401.43  2407.66  4570.54
                             4575.58  4596.93  4601.69  4623.28  4629.33

 Zero-point correction=                           0.100992 (Hartree/Particle)
 Thermal correction to Energy=                    0.105226
 Thermal correction to Enthalpy=                  0.106154
 Thermal correction to Gibbs Free Energy=         0.074105
 Sum of electronic and zero-point Energies=           -232.098628
 Sum of electronic and thermal Energies=              -232.094395
 Sum of electronic and thermal Enthalpies=            -232.093467
 Sum of electronic and thermal Free Energies=         -232.125516

                     E (Thermal)             CV                S
                      KCal/Mol        Cal/Mol-Kelvin    Cal/Mol-Kelvin
 Total                   66.030             16.623             68.638
 Electronic               0.000              0.000              0.000
 Translational            0.873              2.981             38.893
 Rotational               0.873              2.981             25.591
 Vibrational             64.284             10.661              4.154
 Vibration     1          0.766              1.434              0.903
 Vibration     2          0.771              1.423              0.886

 Optimization completed.
    -- Stationary point found.
 Normal termination of Gaussian 09 at Fri Apr  3 13:59:24 2020.
