 Gaussian 09, Revision D.01,
 Gaussian 09:  EM64L-G09RevD.01 24-Apr-2013

 ----------------------------------------------------------------------
 #m062x/6-311g(d,p) opt=maxcycle=640 freq nosymm scf=(maxcycle=999) gfi
 nput iop(6/7=3) scrf=(cpcm,solvent=water) Temperature=293
 ----------------------------------------------------------------------

 --------------------
 Cyclopentene o1cccc1
 --------------------
 Symbolic Z-matrix:
 Charge =  0 Multiplicity = 1

 SCF Done:  E(RM062X) =  -229.976540477     A.U. after   11 cycles
 SCF Done:  E(RM062X) =  -229.988571267     A.U. after   11 cycles
 SCF Done:  E(RM062X) =  -229.989300347     A.U. after   10 cycles
 SCF Done:  E(RM062X) =  -229.989334580     A.U. after    9 cycles
 SCF Done:  E(RM062X) =  -229.989338799     A.U. after    8 cycles
 Optimization completed.
    -- Stationary point found.
 Normal termination of Gaussian 09 at Mon Mar 30 12:44:55 2020.

 ----------------------------------------------------------------------
 #N Geom=AllCheck Guess=TCheck SCRF=Check Test GenChk RM062X/6-311G(d,p
 ) Freq
 ----------------------------------------------------------------------

 Structure from the checkpoint file:  "/scratch/slurm-3840277/Gau-30750.chk"
 --------------------
 Cyclopentene o1cccc1
 --------------------
 Charge =  0 Multiplicity = 1

                          Input orientation:
 ---------------------------------------------------------------------
 Center     Atomic      Atomic             Coordinates (Angstroms)
 Number     Number       Type             X           Y           Z
 ---------------------------------------------------------------------
      1          8           0       -0.349685   -1.076985    0.000315
      2          6           0       -1.137973    0.025982    0.000165
      3          6           0       -0.380980    1.149322    0.000055
      4          6           0        0.984840    0.705553    0.000147
      5          6           0        0.936548   -0.648357    0.000306
      6          1           0       -2.199856   -0.153078    0.000154
      7          1           0       -0.742778    2.164507   -0.000073
      8          1           0        1.874438    1.314136    0.000105
      9          1           0        1.689976   -1.417920    0.000425
 ---------------------------------------------------------------------

 SCF Done:  E(RM062X) =  -229.989338799     A.U. after    1 cycles

 Alpha  occ. eigenvalues --  -19.69342 -10.59115 -10.59109 -10.53960 -10.53900
 Alpha  occ. eigenvalues --   -1.24509  -0.90373  -0.84792  -0.68488  -0.65093
 Alpha  occ. eigenvalues --   -0.62793  -0.54126  -0.51479  -0.47668  -0.46840
 Alpha  occ. eigenvalues --   -0.44514  -0.34652  -0.28991
 Alpha virt. eigenvalues --    0.04785   0.09962   0.10546   0.12485   0.13239
 Alpha virt. eigenvalues --    0.14484   0.19715   0.23190   0.28918   0.34739
 Alpha virt. eigenvalues --    0.36545   0.40350   0.42608   0.43911   0.44043

 Mulliken charges:
               1
     1  O   -0.267685
     2  C    0.046400
     3  C   -0.226172
     4  C   -0.225683
     5  C    0.045601
     6  H    0.161430
     7  H    0.152290
     8  H    0.152303
     9  H    0.161517
 Sum of Mulliken charges =   0.00000

 Dipole moment (field-independent basis, Debye):
    X=              0.2275    Y=              0.7002    Z=             -0.0001  Tot=              0.7362
 Quadrupole moment (field-independent basis, Debye-Ang):
   XX=            -23.5776   YY=            -27.2830   ZZ=            -32.1172
   XY=             -1.3452   XZ=              0.0005   YZ=             -0.0005

  Exact polarizability:  62.494  -0.849  60.578   0.001  -0.004  27.347
 Approx polarizability:  60.361   1.322  64.001   0.001  -0.004  29.096

                      1                      2                      3
                      A                      A                      A
 Frequencies --    619.1621               628.0256               766.8411
 Red. masses --      2.8168                 3.1465                 1.3424
 Frc consts  --      0.6362                 0.7312                 0.4651
 IR Inten    --      0.9113                41.6912                28.0135

                      4                      5                      6
                      A                      A                      A
 Frequencies --    785.0944               892.7130               894.3075
 Red. masses --      1.2440                 5.9402                 4.5058
 Frc consts  --      0.4518                 2.7892                 2.1232
 IR Inten    --    120.9483                 1.4489                21.0774

                      7                      8                      9
                      A                      A                      A
 Frequencies --    895.6212               921.6292              1021.1400
 Red. masses --      1.3171                 1.3399                 1.3804
 Frc consts  --      0.6225                 0.6706                 0.8481
 IR Inten    --      0.0708                 0.6621                73.4511

                     10                     11                     12
                      A                      A                      A
 Frequencies --   1073.3561              1098.5097              1173.8769
 Red. masses --      1.4172                 2.5846                 2.0575
 Frc consts  --      0.9620                 1.8376                 1.6704
 IR Inten    --      6.2218                38.2476                 2.8479

                     13                     14                     15
                      A                      A                      A
 Frequencies --   1237.8440              1288.9236              1430.2706
 Red. masses --      3.3360                 1.2866                 3.0561
 Frc consts  --      3.0117                 1.2594                 3.6834
 IR Inten    --     30.0547                 0.4675                 3.6202

                     16                     17                     18
                      A                      A                      A
 Frequencies --   1538.7655              1623.5362              3256.2946
 Red. masses --      3.6894                 4.8075                 1.0929
 Frc consts  --      5.1469                 7.4661                 6.8278
 IR Inten    --     40.8990                 1.0928                 3.2302

                     19                     20                     21
                      A                      A                      A
 Frequencies --   3268.8167              3285.1590              3295.3736
 Red. masses --      1.0935                 1.1033                 1.1108
 Frc consts  --      6.8840                 7.0152                 7.1073
 IR Inten    --      1.2884                 0.2291                 0.0852

 - Thermochemistry -
 -------------------
 Temperature   293.000 Kelvin.  Pressure   1.00000 Atm.
 Atom     1 has atomic number  8 and mass  15.99491

 Molecular mass:    68.02621 amu.
 Principal axes and moments of inertia in atomic units:
                           1         2         3
     Eigenvalues --   189.87871 192.91177 382.79048
           X            0.31204   0.95007  -0.00003
           Y            0.95007  -0.31204   0.00012
           Z           -0.00010   0.00007   1.00000
 This molecule is an asymmetric top.
 Rotational symmetry number  1.
 Rotational temperatures (Kelvin)      0.45615     0.44898     0.22627
 Rotational constants (GHZ):           9.50471     9.35527     4.71470
 Zero-point vibrational energy     185392.8 (Joules/Mol)
                                   44.30995 (Kcal/Mol)
 Vibrational temperatures:    890.83   903.59  1103.31  1129.57  1284.41
          (Kelvin)           1286.71  1288.60  1326.02  1469.19  1544.32
                             1580.51  1688.94  1780.98  1854.47  2057.84
                             2213.94  2335.90  4685.08  4703.09  4726.61
                             4741.30

 Zero-point correction=                           0.070612 (Hartree/Particle)
 Thermal correction to Energy=                    0.074166
 Thermal correction to Enthalpy=                  0.075094
 Thermal correction to Gibbs Free Energy=         0.044903
 Sum of electronic and zero-point Energies=           -229.918726
 Sum of electronic and thermal Energies=              -229.915173
 Sum of electronic and thermal Enthalpies=            -229.914245
 Sum of electronic and thermal Free Energies=         -229.944436

                     E (Thermal)             CV                S
                      KCal/Mol        Cal/Mol-Kelvin    Cal/Mol-Kelvin
 Total                   46.540             12.726             64.660
 Electronic               0.000              0.000              0.000
 Translational            0.873              2.981             38.483
 Rotational               0.873              2.981             24.102
 Vibrational             44.793              6.764              2.075

 Optimization completed.
    -- Stationary point found.
 Normal termination of Gaussian 09 at Mon Mar 30 12:45:22 2020.
